# vtk DataFile Version 3.0
Triangulation generated with deal.II
ASCII
DATASET UNSTRUCTURED_GRID
POINTS 120 double
0 0.020919 -0.010131
0 0.020919 2.44148
0 2.1223 4.024
0 4.22368 5.60652
0 6.32506 7.18904
0 9.06463 7.47701
0 11.8042 7.76497
0 14.5438 8.05294
0 17.2834 8.34091
0 20.0229 8.62887
0 23.0583 7.89728
0 26.0936 7.16569
0 29.1289 6.4341
0 32.1642 5.70251
0 35.1996 4.97092
0 34.9272 1.04056
0 32.495 1.8383
0 30.0629 2.63605
0 30.1018 4.1148
0 27.5723 4.69852
0 25.0429 5.28223
0 22.5135 5.86595
0 19.984 6.44967
0 17.3223 6.21618
0 14.6605 5.98269
0 11.9988 5.7492
0 9.33704 5.51572
0 6.67529 5.28223
0 4.45716 3.51811
0 2.23904 1.75399
3.33333 19.984 6.44967
3.33333 17.3223 6.21618
3.33333 17.2834 8.34091
3.33333 20.0229 8.62887
6.66667 19.984 6.44967
6.66667 17.3223 6.21618
6.66667 17.2834 8.34091
6.66667 20.0229 8.62887
10 19.984 6.44967
10 17.3223 6.21618
10 17.2834 8.34091
10 20.0229 8.62887
3.33333 6.32506 7.18904
3.33333 6.67529 5.28223
3.33333 4.45716 3.51811
3.33333 4.22368 5.60652
6.66667 6.32506 7.18904
6.66667 6.67529 5.28223
6.66667 4.45716 3.51811
6.66667 4.22368 5.60652
10 6.32506 7.18904
10 6.67529 5.28223
10 4.45716 3.51811
10 4.22368 5.60652
3.33333 9.33704 5.51572
3.33333 9.06463 7.47701
3.33333 11.8042 7.76497
3.33333 11.9988 5.7492
6.66667 9.33704 5.51572
6.66667 9.06463 7.47701
6.66667 11.8042 7.76497
6.66667 11.9988 5.7492
10 9.33704 5.51572
10 9.06463 7.47701
10 11.8042 7.76497
10 11.9988 5.7492
3.33333 30.0629 2.63605
3.33333 30.1018 4.1148
3.33333 32.1642 5.70251
3.33333 32.495 1.8383
6.66667 30.0629 2.63605
6.66667 30.1018 4.1148
6.66667 32.1642 5.70251
6.66667 32.495 1.8383
10 30.0629 2.63605
10 30.1018 4.1148
10 32.1642 5.70251
10 32.495 1.8383
3.33333 2.23904 1.75399
3.33333 0.020919 -0.010131
3.33333 0.020919 2.44148
3.33333 2.1223 4.024
6.66667 2.23904 1.75399
6.66667 0.020919 -0.010131
6.66667 0.020919 2.44148
6.66667 2.1223 4.024
10 2.23904 1.75399
10 0.020919 -0.010131
10 0.020919 2.44148
10 2.1223 4.024
3.33333 14.6605 5.98269
3.33333 14.5438 8.05294
6.66667 14.6605 5.98269
6.66667 14.5438 8.05294
10 14.6605 5.98269
10 14.5438 8.05294
3.33333 27.5723 4.69852
3.33333 25.0429 5.28223
3.33333 26.0936 7.16569
3.33333 29.1289 6.4341
6.66667 27.5723 4.69852
6.66667 25.0429 5.28223
6.66667 26.0936 7.16569
6.66667 29.1289 6.4341
10 27.5723 4.69852
10 25.0429 5.28223
10 26.0936 7.16569
10 29.1289 6.4341
3.33333 22.5135 5.86595
3.33333 23.0583 7.89728
6.66667 22.5135 5.86595
6.66667 23.0583 7.89728
10 22.5135 5.86595
10 23.0583 7.89728
3.33333 35.1996 4.97092
3.33333 34.9272 1.04056
6.66667 35.1996 4.97092
6.66667 34.9272 1.04056
10 35.1996 4.97092
10 34.9272 1.04056

CELLS 48 408
8 77 119 117 73 76 118 116 72
8 73 117 115 69 72 116 114 68
8 69 115 15 16 68 114 14 13
8 94 95 93 92 65 64 60 61
8 92 93 91 90 61 60 56 57
8 90 91 7 24 57 56 6 25
8 104 75 71 100 107 76 72 103
8 100 71 67 96 103 72 68 99
8 96 67 18 19 99 68 13 12
8 52 53 49 48 86 89 85 82
8 48 49 45 44 82 85 81 78
8 44 45 3 28 78 81 2 29
8 112 113 111 110 38 41 37 34
8 110 111 109 108 34 37 33 30
8 108 109 10 21 30 33 9 22
8 105 106 102 101 112 113 111 110
8 101 102 98 97 110 111 109 108
8 97 98 11 20 108 109 10 21
8 104 107 103 100 105 106 102 101
8 100 103 99 96 101 102 98 97
8 96 99 12 19 97 98 11 20
8 39 40 36 35 94 95 93 92
8 35 36 32 31 92 93 91 90
8 31 32 8 23 90 91 7 24
8 86 89 85 82 87 88 84 83
8 82 85 81 78 83 84 80 79
8 78 81 2 29 79 80 1 0
8 74 77 73 70 75 76 72 71
8 70 73 69 66 71 72 68 67
8 66 69 16 17 67 68 13 18
8 51 62 58 47 50 63 59 46
8 47 58 54 43 46 59 55 42
8 43 54 26 27 42 55 5 4
8 62 65 61 58 63 64 60 59
8 58 61 57 54 59 60 56 55
8 54 57 25 26 55 56 6 5
8 51 50 46 47 52 53 49 48
8 47 46 42 43 48 49 45 44
8 43 42 4 27 44 45 3 28
8 38 41 37 34 39 40 36 35
8 34 37 33 30 35 36 32 31
8 30 33 9 22 31 32 8 23
4 79 80 1 0
4 83 84 80 79
4 87 88 84 83
4 115 15 14 114
4 117 115 114 116
4 119 117 116 118

CELL_TYPES 48
12 12 12 12 12 12 12 12 12 12 12 12 12 12 12 12 12 12 12 12 12 12 12 12 12 12 12 12 12 12 12 12 12 12 12 12 12 12 12 12 12 12 
9 9 9 9 9 9 


CELL_DATA 48
SCALARS MaterialID int 1
LOOKUP_TABLE default
1 1 1 3 3 3 1 1 1 4 4 4 1 1 1 1 1 1 1 1 1 3 3 3 4 4 4 1 1 1 3 3 3 3 3 3 4 4 4 3 3 3 
0 0 0 0 0 0 


SCALARS ManifoldID int 1
LOOKUP_TABLE default
1 1 1 3 3 3 1 1 1 4 4 4 1 1 1 1 1 1 1 1 1 3 3 3 4 4 4 1 1 1 3 3 3 3 3 3 4 4 4 3 3 3 
202 202 202 201 201 201 

