# vtk DataFile Version 3.0
Triangulation generated with deal.II
ASCII
DATASET UNSTRUCTURED_GRID
POINTS 609 double
0 0.020919 -0.010131
0 0.020919 2.44148
0 2.1223 4.024
0 4.22368 5.60652
0 6.32506 7.18904
0 9.06463 7.47701
0 11.8042 7.76497
0 14.5438 8.05294
0 17.2834 8.34091
0 20.0229 8.62887
0 23.0583 7.89728
0 26.0936 7.16569
0 29.1289 6.4341
0 32.1642 5.70251
0 35.1996 4.97092
0 34.9272 1.04056
0 32.495 1.8383
0 30.0629 2.63605
0 30.1018 4.1148
0 27.5723 4.69852
0 25.0429 5.28223
0 22.5135 5.86595
0 19.984 6.44967
0 17.3223 6.21618
0 14.6605 5.98269
0 11.9988 5.7492
0 9.33704 5.51572
0 6.67529 5.28223
0 4.45716 3.51811
0 2.23904 1.75399
3.33333 19.984 6.44967
3.33333 17.3223 6.21618
3.33333 17.2834 8.34091
3.33333 20.0229 8.62887
6.66667 19.984 6.44967
6.66667 17.3223 6.21618
6.66667 17.2834 8.34091
6.66667 20.0229 8.62887
10 19.984 6.44967
10 17.3223 6.21618
10 17.2834 8.34091
10 20.0229 8.62887
3.33333 6.32506 7.18904
3.33333 6.67529 5.28223
3.33333 4.45716 3.51811
3.33333 4.22368 5.60652
6.66667 6.32506 7.18904
6.66667 6.67529 5.28223
6.66667 4.45716 3.51811
6.66667 4.22368 5.60652
10 6.32506 7.18904
10 6.67529 5.28223
10 4.45716 3.51811
10 4.22368 5.60652
3.33333 9.33704 5.51572
3.33333 9.06463 7.47701
3.33333 11.8042 7.76497
3.33333 11.9988 5.7492
6.66667 9.33704 5.51572
6.66667 9.06463 7.47701
6.66667 11.8042 7.76497
6.66667 11.9988 5.7492
10 9.33704 5.51572
10 9.06463 7.47701
10 11.8042 7.76497
10 11.9988 5.7492
3.33333 30.0629 2.63605
3.33333 30.1018 4.1148
3.33333 32.1642 5.70251
3.33333 32.495 1.8383
6.66667 30.0629 2.63605
6.66667 30.1018 4.1148
6.66667 32.1642 5.70251
6.66667 32.495 1.8383
10 30.0629 2.63605
10 30.1018 4.1148
10 32.1642 5.70251
10 32.495 1.8383
3.33333 2.23904 1.75399
3.33333 0.020919 -0.010131
3.33333 0.020919 2.44148
3.33333 2.1223 4.024
6.66667 2.23904 1.75399
6.66667 0.020919 -0.010131
6.66667 0.020919 2.44148
6.66667 2.1223 4.024
10 2.23904 1.75399
10 0.020919 -0.010131
10 0.020919 2.44148
10 2.1223 4.024
3.33333 14.6605 5.98269
3.33333 14.5438 8.05294
6.66667 14.6605 5.98269
6.66667 14.5438 8.05294
10 14.6605 5.98269
10 14.5438 8.05294
3.33333 27.5723 4.69852
3.33333 25.0429 5.28223
3.33333 26.0936 7.16569
3.33333 29.1289 6.4341
6.66667 27.5723 4.69852
6.66667 25.0429 5.28223
6.66667 26.0936 7.16569
6.66667 29.1289 6.4341
10 27.5723 4.69852
10 25.0429 5.28223
10 26.0936 7.16569
10 29.1289 6.4341
3.33333 22.5135 5.86595
3.33333 23.0583 7.89728
6.66667 22.5135 5.86595
6.66667 23.0583 7.89728
10 22.5135 5.86595
10 23.0583 7.89728
3.33333 35.1996 4.97092
3.33333 34.9272 1.04056
6.66667 35.1996 4.97092
6.66667 34.9272 1.04056
10 35.1996 4.97092
10 34.9272 1.04056
0 0.020919 1.21567
0 1.07161 3.23274
0 3.17299 4.81526
0 5.27437 6.39778
0 7.69485 7.33302
0 10.4344 7.62099
0 13.174 7.90896
0 15.9136 8.19692
0 18.6532 8.48489
0 21.5406 8.26308
0 24.5759 7.53149
0 27.6113 6.7999
0 30.6466 6.0683
0 33.6819 5.33671
0 35.0634 3.00574
0 32.3296 3.77041
0 33.7111 1.43943
0 31.2789 2.23718
0 30.0823 3.37542
0 31.133 4.90865
0 28.3506 5.56631
0 28.8371 4.40666
0 26.3076 4.99037
0 25.5682 6.22396
0 23.7782 5.57409
0 22.7859 6.88162
0 21.2487 6.15781
0 20.0035 7.53927
0 18.6532 6.33292
0 17.3028 7.27854
0 15.9914 6.09943
0 14.6022 7.01782
0 13.3297 5.86595
0 11.9015 6.75709
0 9.20083 6.49636
0 10.6679 5.63246
0 6.50017 6.23564
0 8.00616 5.39897
0 5.56623 4.40017
0 4.34042 4.56231
0 3.3481 2.63605
0 1.12998 0.871929
0 2.18067 2.88899
1.66667 19.984 6.44967
3.33333 18.6532 6.33292
3.33333 20.0035 7.53927
1.66667 17.3223 6.21618
3.33333 17.3028 7.27854
3.33333 15.9914 6.09943
1.66667 17.2834 8.34091
3.33333 15.9136 8.19692
1.66667 20.0229 8.62887
3.33333 18.6532 8.48489
5 19.984 6.44967
6.66667 18.6532 6.33292
6.66667 20.0035 7.53927
5 17.3223 6.21618
6.66667 17.3028 7.27854
6.66667 15.9914 6.09943
5 17.2834 8.34091
6.66667 15.9136 8.19692
5 20.0229 8.62887
6.66667 18.6532 8.48489
8.33333 19.984 6.44967
10 18.6532 6.33292
10 20.0035 7.53927
8.33333 17.3223 6.21618
10 17.3028 7.27854
10 15.9914 6.09943
8.33333 17.2834 8.34091
10 15.9136 8.19692
8.33333 20.0229 8.62887
10 18.6532 8.48489
1.66667 6.32506 7.18904
3.33333 5.27437 6.39778
3.33333 7.69485 7.33302
1.66667 6.67529 5.28223
3.33333 6.50017 6.23564
3.33333 5.56623 4.40017
3.33333 8.00616 5.39897
1.66667 4.45716 3.51811
3.33333 4.34042 4.56231
3.33333 3.3481 2.63605
1.66667 4.22368 5.60652
3.33333 3.17299 4.81526
5 6.32506 7.18904
6.66667 5.27437 6.39778
6.66667 7.69485 7.33302
5 6.67529 5.28223
6.66667 6.50017 6.23564
6.66667 5.56623 4.40017
6.66667 8.00616 5.39897
5 4.45716 3.51811
6.66667 4.34042 4.56231
6.66667 3.3481 2.63605
5 4.22368 5.60652
6.66667 3.17299 4.81526
8.33333 6.32506 7.18904
10 5.27437 6.39778
10 7.69485 7.33302
8.33333 6.67529 5.28223
10 6.50017 6.23564
10 5.56623 4.40017
10 8.00616 5.39897
8.33333 4.45716 3.51811
10 4.34042 4.56231
10 3.3481 2.63605
8.33333 4.22368 5.60652
10 3.17299 4.81526
1.66667 9.33704 5.51572
3.33333 9.20083 6.49636
3.33333 10.6679 5.63246
1.66667 9.06463 7.47701
3.33333 10.4344 7.62099
1.66667 11.8042 7.76497
1.66667 11.9988 5.7492
3.33333 11.9015 6.75709
5 9.33704 5.51572
6.66667 9.20083 6.49636
6.66667 10.6679 5.63246
5 9.06463 7.47701
6.66667 10.4344 7.62099
5 11.8042 7.76497
5 11.9988 5.7492
6.66667 11.9015 6.75709
8.33333 9.33704 5.51572
10 9.20083 6.49636
10 10.6679 5.63246
8.33333 9.06463 7.47701
10 10.4344 7.62099
8.33333 11.8042 7.76497
8.33333 11.9988 5.7492
10 11.9015 6.75709
1.66667 30.0629 2.63605
3.33333 30.0823 3.37542
3.33333 31.2789 2.23718
1.66667 30.1018 4.1148
3.33333 31.133 4.90865
1.66667 32.1642 5.70251
3.33333 33.6819 5.33671
1.66667 32.495 1.8383
3.33333 32.3296 3.77041
3.33333 33.7111 1.43943
5 30.0629 2.63605
6.66667 30.0823 3.37542
6.66667 31.2789 2.23718
5 30.1018 4.1148
6.66667 31.133 4.90865
5 32.1642 5.70251
6.66667 33.6819 5.33671
5 32.495 1.8383
6.66667 32.3296 3.77041
6.66667 33.7111 1.43943
8.33333 30.0629 2.63605
10 30.0823 3.37542
10 31.2789 2.23718
8.33333 30.1018 4.1148
10 31.133 4.90865
8.33333 32.1642 5.70251
10 33.6819 5.33671
8.33333 32.495 1.8383
10 32.3296 3.77041
10 33.7111 1.43943
1.66667 2.23904 1.75399
3.33333 1.12998 0.871929
3.33333 2.18067 2.88899
1.66667 0.020919 -0.010131
3.33333 0.020919 1.21567
1.66667 0.020919 2.44148
1.66667 2.1223 4.024
3.33333 1.07161 3.23274
5 2.23904 1.75399
6.66667 1.12998 0.871929
6.66667 2.18067 2.88899
5 0.020919 -0.010131
6.66667 0.020919 1.21567
5 0.020919 2.44148
5 2.1223 4.024
6.66667 1.07161 3.23274
8.33333 2.23904 1.75399
10 1.12998 0.871929
10 2.18067 2.88899
8.33333 0.020919 -0.010131
10 0.020919 1.21567
8.33333 0.020919 2.44148
8.33333 2.1223 4.024
10 1.07161 3.23274
1.66667 14.6605 5.98269
3.33333 13.3297 5.86595
3.33333 14.6022 7.01782
1.66667 14.5438 8.05294
3.33333 13.174 7.90896
6.66667 13.3297 5.86595
5 14.6605 5.98269
6.66667 14.6022 7.01782
6.66667 13.174 7.90896
5 14.5438 8.05294
10 13.3297 5.86595
8.33333 14.6605 5.98269
10 14.6022 7.01782
10 13.174 7.90896
8.33333 14.5438 8.05294
1.66667 27.5723 4.69852
3.33333 28.8371 4.40666
3.33333 26.3076 4.99037
3.33333 28.3506 5.56631
1.66667 25.0429 5.28223
3.33333 25.5682 6.22396
3.33333 23.7782 5.57409
1.66667 26.0936 7.16569
3.33333 24.5759 7.53149
1.66667 29.1289 6.4341
3.33333 30.6466 6.0683
3.33333 27.6113 6.7999
6.66667 28.8371 4.40666
5 27.5723 4.69852
6.66667 26.3076 4.99037
6.66667 28.3506 5.56631
5 25.0429 5.28223
6.66667 25.5682 6.22396
6.66667 23.7782 5.57409
5 26.0936 7.16569
6.66667 24.5759 7.53149
6.66667 30.6466 6.0683
5 29.1289 6.4341
6.66667 27.6113 6.7999
10 28.8371 4.40666
8.33333 27.5723 4.69852
10 26.3076 4.99037
10 28.3506 5.56631
8.33333 25.0429 5.28223
10 25.5682 6.22396
10 23.7782 5.57409
8.33333 26.0936 7.16569
10 24.5759 7.53149
10 30.6466 6.0683
8.33333 29.1289 6.4341
10 27.6113 6.7999
1.66667 22.5135 5.86595
3.33333 21.2487 6.15781
3.33333 22.7859 6.88162
1.66667 23.0583 7.89728
3.33333 21.5406 8.26308
6.66667 21.2487 6.15781
5 22.5135 5.86595
6.66667 22.7859 6.88162
6.66667 21.5406 8.26308
5 23.0583 7.89728
10 21.2487 6.15781
8.33333 22.5135 5.86595
10 22.7859 6.88162
10 21.5406 8.26308
8.33333 23.0583 7.89728
1.66667 35.1996 4.97092
1.66667 34.9272 1.04056
3.33333 35.0634 3.00574
5 35.1996 4.97092
5 34.9272 1.04056
6.66667 35.0634 3.00574
8.33333 35.1996 4.97092
8.33333 34.9272 1.04056
10 35.0634 3.00574
0 33.6965 3.38807
0 31.206 3.57292
0 26.9594 5.89513
0 29.7418 5.23748
0 24.1771 6.55279
0 21.3947 7.21044
0 18.6532 7.40891
0 15.9525 7.14818
0 13.2518 6.88745
0 10.5512 6.62673
0 5.4203 5.39897
0 7.8505 6.366
0 3.26055 3.72565
0 1.10079 2.05233
1.66667 20.0035 7.53927
1.66667 18.6532 6.33292
3.33333 18.6532 7.40891
1.66667 17.3028 7.27854
3.33333 15.9525 7.14818
1.66667 15.9914 6.09943
1.66667 15.9136 8.19692
1.66667 18.6532 8.48489
5 20.0035 7.53927
5 18.6532 6.33292
6.66667 18.6532 7.40891
5 17.3028 7.27854
6.66667 15.9525 7.14818
5 15.9914 6.09943
5 15.9136 8.19692
5 18.6532 8.48489
8.33333 20.0035 7.53927
8.33333 18.6532 6.33292
10 18.6532 7.40891
8.33333 17.3028 7.27854
10 15.9525 7.14818
8.33333 15.9914 6.09943
8.33333 15.9136 8.19692
8.33333 18.6532 8.48489
1.66667 7.69485 7.33302
1.66667 5.27437 6.39778
1.66667 8.00616 5.39897
1.66667 6.50017 6.23564
3.33333 5.4203 5.39897
1.66667 5.56623 4.40017
3.33333 7.8505 6.366
1.66667 4.34042 4.56231
3.33333 3.26055 3.72565
1.66667 3.3481 2.63605
1.66667 3.17299 4.81526
5 7.69485 7.33302
5 5.27437 6.39778
5 8.00616 5.39897
5 6.50017 6.23564
6.66667 5.4203 5.39897
5 5.56623 4.40017
6.66667 7.8505 6.366
5 4.34042 4.56231
6.66667 3.26055 3.72565
5 3.3481 2.63605
5 3.17299 4.81526
8.33333 7.69485 7.33302
8.33333 5.27437 6.39778
8.33333 8.00616 5.39897
8.33333 6.50017 6.23564
10 5.4203 5.39897
8.33333 5.56623 4.40017
10 7.8505 6.366
8.33333 4.34042 4.56231
10 3.26055 3.72565
8.33333 3.3481 2.63605
8.33333 3.17299 4.81526
1.66667 10.6679 5.63246
1.66667 9.20083 6.49636
3.33333 10.5512 6.62673
1.66667 10.4344 7.62099
1.66667 11.9015 6.75709
5 10.6679 5.63246
5 9.20083 6.49636
6.66667 10.5512 6.62673
5 10.4344 7.62099
5 11.9015 6.75709
8.33333 10.6679 5.63246
[...]
CELL_DATA 1140
SCALARS MaterialID int 1
LOOKUP_TABLE default
1 1 1 1 1 1 1 1 1 1 1 1 1 1 1 1 1 1 1 1 1 1 1 1 3 3 3 3 3 3 3 3 3 3 3 3 3 3 3 3 3 3 3 3 3 3 3 3 1 1 1 1 1 1 1 1 1 1 1 1 1 1 1 1 1 1 1 1 1 1 1 1 4 4 4 4 4 4 4 4 4 4 4 4 4 4 4 4 4 4 4 4 4 4 4 4 1 1 1 1 1 1 1 1 1 1 1 1 1 1 1 1 1 1 1 1 1 1 1 1 1 1 1 1 1 1 1 1 1 1 1 1 1 1 1 1 1 1 1 1 1 1 1 1 1 1 1 1 1 1 1 1 1 1 1 1 1 1 1 1 1 1 1 1 1 1 1 1 3 3 3 3 3 3 3 3 3 3 3 3 3 3 3 3 3 3 3 3 3 3 3 3 4 4 4 4 4 4 4 4 4 4 4 4 4 4 4 4 4 4 4 4 4 4 4 4 1 1 1 1 1 1 1 1 1 1 1 1 1 1 1 1 1 1 1 1 1 1 1 1 3 3 3 3 3 3 3 3 3 3 3 3 3 3 3 3 3 3 3 3 3 3 3 3 3 3 3 3 3 3 3 3 3 3 3 3 3 3 3 3 3 3 3 3 3 3 3 3 4 4 4 4 4 4 4 4 4 4 4 4 4 4 4 4 4 4 4 4 4 4 4 4 3 3 3 3 3 3 3 3 3 3 3 3 3 3 3 3 3 3 3 3 3 3 3 3 
0 0 0 0 0 0 0 0 0 0 0 0 0 0 0 0 0 0 0 0 0 0 0 0 -1 -1 -1 -1 -1 -1 -1 -1 -1 -1 -1 -1 -1 -1 -1 -1 -1 -1 -1 -1 -1 -1 -1 -1 -1 -1 -1 -1 -1 -1 -1 -1 -1 -1 -1 -1 -1 -1 -1 -1 -1 -1 -1 -1 -1 -1 -1 -1 -1 -1 -1 -1 -1 -1 -1 -1 -1 -1 -1 -1 -1 -1 -1 -1 -1 -1 -1 -1 -1 -1 -1 -1 -1 -1 -1 -1 -1 -1 -1 -1 -1 -1 -1 -1 -1 -1 -1 -1 -1 -1 -1 -1 -1 -1 -1 -1 -1 -1 -1 -1 -1 -1 -1 -1 -1 -1 -1 -1 -1 -1 -1 -1 -1 -1 -1 -1 -1 -1 -1 -1 -1 -1 -1 -1 -1 -1 -1 -1 -1 -1 -1 -1 -1 -1 -1 -1 -1 -1 -1 -1 -1 -1 -1 -1 -1 -1 -1 -1 -1 -1 -1 -1 -1 -1 -1 -1 -1 -1 -1 -1 -1 -1 -1 -1 -1 -1 -1 -1 -1 -1 -1 -1 -1 -1 -1 -1 -1 -1 -1 -1 -1 -1 -1 -1 -1 -1 -1 -1 -1 -1 -1 -1 -1 -1 -1 -1 -1 -1 -1 -1 -1 -1 -1 -1 -1 -1 -1 -1 -1 -1 -1 -1 -1 -1 -1 -1 -1 -1 -1 -1 -1 -1 -1 -1 -1 -1 -1 -1 -1 -1 -1 -1 -1 -1 -1 -1 -1 -1 -1 -1 -1 -1 -1 -1 -1 -1 -1 -1 -1 -1 -1 -1 -1 -1 -1 -1 -1 -1 -1 -1 -1 -1 -1 -1 -1 -1 -1 -1 -1 -1 -1 -1 -1 -1 -1 -1 -1 -1 -1 -1 -1 -1 -1 -1 -1 -1 -1 -1 -1 -1 -1 -1 -1 -1 -1 -1 -1 -1 -1 -1 -1 -1 -1 -1 -1 -1 -1 -1 -1 -1 -1 -1 -1 -1 -1 -1 -1 -1 -1 -1 -1 -1 -1 -1 -1 -1 -1 -1 -1 -1 -1 -1 -1 -1 -1 -1 -1 -1 -1 -1 -1 -1 -1 -1 -1 -1 -1 -1 -1 -1 -1 -1 -1 -1 -1 -1 -1 -1 -1 -1 -1 -1 -1 -1 -1 -1 -1 -1 -1 -1 -1 -1 -1 -1 -1 -1 -1 -1 -1 -1 -1 -1 -1 -1 -1 -1 -1 -1 -1 -1 -1 -1 -1 -1 -1 -1 -1 -1 -1 -1 -1 -1 -1 -1 -1 -1 -1 -1 -1 -1 -1 -1 -1 -1 -1 -1 -1 -1 -1 -1 -1 -1 -1 -1 -1 -1 -1 -1 -1 -1 -1 -1 -1 -1 -1 -1 -1 -1 -1 -1 -1 -1 -1 -1 -1 -1 -1 -1 -1 -1 -1 -1 -1 -1 -1 -1 -1 -1 -1 -1 -1 -1 -1 -1 -1 -1 -1 -1 -1 -1 -1 -1 -1 -1 -1 -1 -1 -1 -1 -1 -1 -1 -1 -1 -1 -1 -1 -1 -1 -1 -1 -1 -1 -1 -1 -1 -1 -1 -1 -1 -1 -1 -1 -1 
0 0 0 0 0 0 0 0 0 0 0 0 0 0 0 0 0 0 0 0 0 0 0 0 -1 -1 -1 -1 -1 -1 -1 -1 -1 -1 -1 -1 -1 -1 -1 -1 -1 -1 -1 -1 -1 -1 -1 -1 -1 -1 -1 -1 -1 -1 -1 -1 -1 -1 -1 -1 -1 -1 -1 -1 -1 -1 -1 -1 -1 -1 -1 -1 -1 -1 -1 -1 -1 -1 -1 -1 -1 -1 -1 -1 -1 -1 -1 -1 -1 -1 -1 -1 -1 -1 -1 -1 -1 -1 -1 -1 -1 -1 -1 -1 -1 -1 -1 -1 -1 -1 -1 -1 -1 -1 -1 -1 -1 -1 -1 -1 -1 -1 -1 -1 -1 -1 -1 -1 -1 -1 -1 -1 -1 -1 -1 -1 -1 -1 -1 -1 -1 -1 -1 -1 -1 -1 -1 -1 -1 -1 -1 -1 -1 -1 -1 -1 -1 -1 -1 -1 -1 -1 -1 -1 -1 -1 -1 -1 -1 -1 -1 -1 -1 -1 -1 -1 -1 -1 -1 -1 -1 -1 -1 -1 -1 -1 -1 -1 -1 -1 -1 -1 -1 -1 -1 -1 -1 -1 -1 -1 -1 -1 -1 -1 -1 -1 -1 -1 -1 -1 -1 -1 -1 -1 -1 -1 -1 -1 -1 -1 -1 -1 -1 -1 -1 -1 -1 -1 -1 -1 -1 -1 -1 -1 -1 -1 -1 -1 -1 -1 -1 -1 -1 -1 -1 -1 -1 -1 -1 -1 -1 -1 -1 -1 -1 -1 -1 -1 -1 -1 -1 -1 -1 -1 -1 -1 -1 -1 -1 -1 -1 -1 -1 -1 -1 -1 

SCALARS ManifoldID int 1
LOOKUP_TABLE default
1 1 1 1 1 1 1 1 1 1 1 1 1 1 1 1 1 1 1 1 1 1 1 1 3 3 3 3 3 3 3 3 3 3 3 3 3 3 3 3 3 3 3 3 3 3 3 3 1 1 1 1 1 1 1 1 1 1 1 1 1 1 1 1 1 1 1 1 1 1 1 1 4 4 4 4 4 4 4 4 4 4 4 4 4 4 4 4 4 4 4 4 4 4 4 4 1 1 1 1 1 1 1 1 1 1 1 1 1 1 1 1 1 1 1 1 1 1 1 1 1 1 1 1 1 1 1 1 1 1 1 1 1 1 1 1 1 1 1 1 1 1 1 1 1 1 1 1 1 1 1 1 1 1 1 1 1 1 1 1 1 1 1 1 1 1 1 1 3 3 3 3 3 3 3 3 3 3 3 3 3 3 3 3 3 3 3 3 3 3 3 3 4 4 4 4 4 4 4 4 4 4 4 4 4 4 4 4 4 4 4 4 4 4 4 4 1 1 1 1 1 1 1 1 1 1 1 1 1 1 1 1 1 1 1 1 1 1 1 1 3 3 3 3 3 3 3 3 3 3 3 3 3 3 3 3 3 3 3 3 3 3 3 3 3 3 3 3 3 3 3 3 3 3 3 3 3 3 3 3 3 3 3 3 3 3 3 3 4 4 4 4 4 4 4 4 4 4 4 4 4 4 4 4 4 4 4 4 4 4 4 4 3 3 3 3 3 3 3 3 3 3 3 3 3 3 3 3 3 3 3 3 3 3 3 3 
202 202 202 202 202 202 202 202 202 202 202 202 201 201 201 201 201 201 201 201 201 201 201 201 3 3 3 3 3 3 3 3 3 3 3 3 3 3 3 3 3 3 3 3 3 3 3 3 3 3 3 3 3 3 3 3 3 3 3 3 4 4 4 4 4 4 4 4 4 4 4 4 4 4 4 4 4 4 4 4 4 4 4 4 4 4 4 4 4 4 4 4 4 4 4 4 3 3 3 3 3 3 3 3 3 3 3 3 3 3 3 3 3 3 3 3 3 3 3 3 3 3 3 3 3 3 3 3 3 3 3 3 3 3 3 3 3 3 3 3 3 3 3 3 3 3 3 3 3 3 3 3 3 3 3 3 3 3 3 3 3 3 3 3 3 3 3 3 1 1 1 1 1 1 1 1 1 1 1 1 1 1 1 1 1 1 1 1 1 1 1 1 1 1 1 1 1 1 1 1 1 1 1 1 4 4 4 4 4 4 4 4 4 4 4 4 4 4 4 4 4 4 4 4 4 4 4 4 4 4 4 4 4 4 4 4 4 4 4 4 3 3 3 3 3 3 3 3 3 3 3 3 3 3 3 3 3 3 3 3 3 3 3 3 3 3 3 3 3 3 3 3 3 3 3 3 1 1 1 1 1 1 1 1 1 1 1 1 1 1 1 1 1 1 1 1 1 1 1 1 1 1 1 1 1 1 1 1 1 1 1 1 1 1 1 1 1 1 1 1 1 1 1 1 1 1 1 1 1 1 1 1 1 1 1 1 1 1 1 1 1 1 1 1 1 1 1 1 1 1 1 1 1 1 1 1 1 1 1 1 1 1 1 1 1 1 1 1 1 1 1 1 1 1 1 1 1 1 1 1 1 1 1 1 4 4 4 4 4 4 4 4 4 4 4 4 4 4 4 4 4 4 4 4 4 4 4 4 4 4 4 4 4 4 4 4 4 4 4 4 1 1 1 1 1 1 1 1 1 1 1 1 1 1 1 1 1 1 1 1 1 1 1 1 1 1 1 1 1 1 1 1 1 1 1 1 3 3 3 3 3 3 3 3 3 3 3 3 3 3 3 3 3 3 3 3 3 3 3 3 3 3 3 3 3 3 3 3 3 3 3 3 1 1 1 1 1 1 1 1 1 1 1 1 1 1 1 1 1 1 1 1 1 1 1 1 1 1 1 1 1 1 1 1 1 1 1 1 
202 202 202 202 202 202 202 202 202 202 202 202 201 201 201 201 201 201 201 201 201 201 201 201 3 3 3 3 3 3 3 3 3 3 3 3 3 3 3 3 3 3 4 4 4 4 4 4 4 4 4 4 4 4 4 4 4 4 4 4 3 3 3 3 3 3 3 3 3 3 3 3 3 3 3 3 3 3 3 3 3 3 3 3 3 3 3 3 3 3 3 3 3 3 3 3 1 1 1 1 1 1 1 1 1 1 1 1 1 1 1 1 1 1 4 4 4 4 4 4 4 4 4 4 4 4 4 4 4 4 4 4 3 3 3 3 3 3 3 3 3 3 3 3 3 3 3 3 3 3 1 1 1 1 1 1 1 1 1 1 1 1 1 1 1 1 1 1 1 1 1 1 1 1 1 1 1 1 1 1 1 1 1 1 1 1 1 1 1 1 1 1 1 1 1 1 1 1 1 1 1 1 1 1 4 4 4 4 4 4 4 4 4 4 4 4 4 4 4 4 4 4 1 1 1 1 1 1 1 1 1 1 1 1 1 1 1 1 1 1 3 3 3 3 3 3 3 3 3 3 3 3 3 3 3 3 3 3 1 1 1 1 1 1 1 1 1 1 1 1 1 1 1 1 1 1 
