# vtk DataFile Version 3.0
#This file was generated by the deal.II library on 2023/4/20 at 13:56:30
ASCII
DATASET UNSTRUCTURED_GRID

POINTS 8 double
0 0 0
1 0 0
1 1 0
0 1 0
0 0 0
1 0 0
1 1 0
0 1 0

CELLS 2 10
4	0	1	3	2
4	4	5	7	6

CELL_TYPES 2
 9 9
POINT_DATA 8
SCALARS solution double 1
LOOKUP_TABLE default
-1.71566e+15 -1.71566e+15 -1.71566e+15 -1.71566e+15 -1.71566e+15 -1.71566e+15 -1.71566e+15 -1.71566e+15 
