# vtk DataFile Version 3.0
Triangulation generated with deal.II
ASCII
DATASET UNSTRUCTURED_GRID
POINTS 216 double
1 1 1
1 0.8 1
1 0.6 1
1 0.4 1
1 0.2 1
1 0 1
1 1 0.8
1 0.8 0.8
1 0.6 0.8
1 0.4 0.8
1 0.2 0.8
1 0 0.8
1 1 0.6
1 0.8 0.6
1 0.6 0.6
1 0.4 0.6
1 0.2 0.6
1 0 0.6
1 1 0.4
1 0.8 0.4
1 0.6 0.4
1 0.4 0.4
1 0.2 0.4
1 0 0.4
1 1 0.2
1 0.8 0.2
1 0.6 0.2
1 0.4 0.2
1 0.2 0.2
1 0 0.2
1 1 0
1 0.8 0
1 0.6 0
1 0.4 0
1 0.2 0
1 0 0
0.8 1 1
0.8 0.8 1
0.8 0.6 1
0.8 0.4 1
0.8 0.2 1
0.8 0 1
0.8 1 0.8
0.8 0.8 0.8
0.8 0.6 0.8
0.8 0.4 0.8
0.8 0.2 0.8
0.8 0 0.8
0.8 1 0.6
0.8 0.8 0.6
0.8 0.6 0.6
0.8 0.4 0.6
0.8 0.2 0.6
0.8 0 0.6
0.8 1 0.4
0.8 0.8 0.4
0.8 0.6 0.4
0.8 0.4 0.4
0.8 0.2 0.4
0.8 0 0.4
0.8 1 0.2
0.8 0.8 0.2
0.8 0.6 0.2
0.8 0.4 0.2
0.8 0.2 0.2
0.8 0 0.2
0.8 1 0
0.8 0.8 0
0.8 0.6 0
0.8 0.4 0
0.8 0.2 0
0.8 0 0
0.6 1 1
0.6 0.8 1
0.6 0.6 1
0.6 0.4 1
0.6 0.2 1
0.6 0 1
0.6 1 0.8
0.6 0.8 0.8
0.6 0.6 0.8
0.6 0.4 0.8
0.6 0.2 0.8
0.6 0 0.8
0.6 1 0.6
0.6 0.8 0.6
0.6 0.6 0.6
0.6 0.4 0.6
0.6 0.2 0.6
0.6 0 0.6
0.6 1 0.4
0.6 0.8 0.4
0.6 0.6 0.4
0.6 0.4 0.4
0.6 0.2 0.4
0.6 0 0.4
0.6 1 0.2
0.6 0.8 0.2
0.6 0.6 0.2
0.6 0.4 0.2
0.6 0.2 0.2
0.6 0 0.2
0.6 1 0
0.6 0.8 0
0.6 0.6 0
0.6 0.4 0
0.6 0.2 0
0.6 0 0
0.4 1 1
0.4 0.8 1
0.4 0.6 1
0.4 0.4 1
0.4 0.2 1
0.4 0 1
0.4 1 0.8
0.4 0.8 0.8
0.4 0.6 0.8
0.4 0.4 0.8
0.4 0.2 0.8
0.4 0 0.8
0.4 1 0.6
0.4 0.8 0.6
0.4 0.6 0.6
0.4 0.4 0.6
0.4 0.2 0.6
0.4 0 0.6
0.4 1 0.4
0.4 0.8 0.4
0.4 0.6 0.4
0.4 0.4 0.4
0.4 0.2 0.4
0.4 0 0.4
0.4 1 0.2
0.4 0.8 0.2
0.4 0.6 0.2
0.4 0.4 0.2
0.4 0.2 0.2
0.4 0 0.2
0.4 1 0
0.4 0.8 0
0.4 0.6 0
0.4 0.4 0
0.4 0.2 0
0.4 0 0
0.2 1 1
0.2 0.8 1
0.2 0.6 1
0.2 0.4 1
0.2 0.2 1
0.2 0 1
0.2 1 0.8
0.2 0.8 0.8
0.2 0.6 0.8
0.2 0.4 0.8
0.2 0.2 0.8
0.2 0 0.8
0.2 1 0.6
0.2 0.8 0.6
0.2 0.6 0.6
0.2 0.4 0.6
0.2 0.2 0.6
0.2 0 0.6
0.2 1 0.4
0.2 0.8 0.4
0.2 0.6 0.4
0.2 0.4 0.4
0.2 0.2 0.4
0.2 0 0.4
0.2 1 0.2
0.2 0.8 0.2
0.2 0.6 0.2
0.2 0.4 0.2
0.2 0.2 0.2
0.2 0 0.2
0.2 1 0
0.2 0.8 0
0.2 0.6 0
0.2 0.4 0
0.2 0.2 0
0.2 0 0
0 1 1
0 0.8 1
0 0.6 1
0 0.4 1
0 0.2 1
0 0 1
0 1 0.8
0 0.8 0.8
0 0.6 0.8
0 0.4 0.8
0 0.2 0.8
0 0 0.8
0 1 0.6
0 0.8 0.6
0 0.6 0.6
0 0.4 0.6
0 0.2 0.6
0 0 0.6
0 1 0.4
0 0.8 0.4
0 0.6 0.4
0 0.4 0.4
0 0.2 0.4
0 0 0.4
0 1 0.2
0 0.8 0.2
0 0.6 0.2
0 0.4 0.2
0 0.2 0.2
0 0 0.2
0 1 0
0 0.8 0
0 0.6 0
0 0.4 0
0 0.2 0
0 0 0

CELLS 125 1125
8 0 1 37 36 6 7 43 42
8 1 2 38 37 7 8 44 43
8 2 3 39 38 8 9 45 44
8 3 4 40 39 9 10 46 45
8 4 5 41 40 10 11 47 46
8 6 7 43 42 12 13 49 48
8 7 8 44 43 13 14 50 49
8 8 9 45 44 14 15 51 50
8 9 10 46 45 15 16 52 51
8 10 11 47 46 16 17 53 52
8 12 13 49 48 18 19 55 54
8 13 14 50 49 19 20 56 55
8 14 15 51 50 20 21 57 56
8 15 16 52 51 21 22 58 57
8 16 17 53 52 22 23 59 58
8 18 19 55 54 24 25 61 60
8 19 20 56 55 25 26 62 61
8 20 21 57 56 26 27 63 62
8 21 22 58 57 27 28 64 63
8 22 23 59 58 28 29 65 64
8 24 25 61 60 30 31 67 66
8 25 26 62 61 31 32 68 67
8 26 27 63 62 32 33 69 68
8 27 28 64 63 33 34 70 69
8 28 29 65 64 34 35 71 70
8 36 37 73 72 42 43 79 78
8 37 38 74 73 43 44 80 79
8 38 39 75 74 44 45 81 80
8 39 40 76 75 45 46 82 81
8 40 41 77 76 46 47 83 82
8 42 43 79 78 48 49 85 84
8 43 44 80 79 49 50 86 85
8 44 45 81 80 50 51 87 86
8 45 46 82 81 51 52 88 87
8 46 47 83 82 52 53 89 88
8 48 49 85 84 54 55 91 90
8 49 50 86 85 55 56 92 91
8 50 51 87 86 56 57 93 92
8 51 52 88 87 57 58 94 93
8 52 53 89 88 58 59 95 94
8 54 55 91 90 60 61 97 96
8 55 56 92 91 61 62 98 97
8 56 57 93 92 62 63 99 98
8 57 58 94 93 63 64 100 99
8 58 59 95 94 64 65 101 100
8 60 61 97 96 66 67 103 102
8 61 62 98 97 67 68 104 103
8 62 63 99 98 68 69 105 104
8 63 64 100 99 69 70 106 105
8 64 65 101 100 70 71 107 106
8 72 73 109 108 78 79 115 114
8 73 74 110 109 79 80 116 115
8 74 75 111 110 80 81 117 116
8 75 76 112 111 81 82 118 117
8 76 77 113 112 82 83 119 118
8 78 79 115 114 84 85 121 120
8 79 80 116 115 85 86 122 121
8 80 81 117 116 86 87 123 122
8 81 82 118 117 87 88 124 123
8 82 83 119 118 88 89 125 124
8 84 85 121 120 90 91 127 126
8 85 86 122 121 91 92 128 127
8 86 87 123 122 92 93 129 128
8 87 88 124 123 93 94 130 129
8 88 89 125 124 94 95 131 130
8 90 91 127 126 96 97 133 132
8 91 92 128 127 97 98 134 133
8 92 93 129 128 98 99 135 134
8 93 94 130 129 99 100 136 135
8 94 95 131 130 100 101 137 136
8 96 97 133 132 102 103 139 138
8 97 98 134 133 103 104 140 139
8 98 99 135 134 104 105 141 140
8 99 100 136 135 105 106 142 141
8 100 101 137 136 106 107 143 142
8 108 109 145 144 114 115 151 150
8 109 110 146 145 115 116 152 151
8 110 111 147 146 116 117 153 152
8 111 112 148 147 117 118 154 153
8 112 113 149 148 118 119 155 154
8 114 115 151 150 120 121 157 156
8 115 116 152 151 121 122 158 157
8 116 117 153 152 122 123 159 158
8 117 118 154 153 123 124 160 159
8 118 119 155 154 124 125 161 160
8 120 121 157 156 126 127 163 162
8 121 122 158 157 127 128 164 163
8 122 123 159 158 128 129 165 164
8 123 124 160 159 129 130 166 165
8 124 125 161 160 130 131 167 166
8 126 127 163 162 132 133 169 168
8 127 128 164 163 133 134 170 169
8 128 129 165 164 134 135 171 170
8 129 130 166 165 135 136 172 171
8 130 131 167 166 136 137 173 172
8 132 133 169 168 138 139 175 174
8 133 134 170 169 139 140 176 175
8 134 135 171 170 140 141 177 176
8 135 136 172 171 141 142 178 177
8 136 137 173 172 142 143 179 178
8 144 145 181 180 150 151 187 186
8 145 146 182 181 151 152 188 187
8 146 147 183 182 152 153 189 188
8 147 148 184 183 153 154 190 189
8 148 149 185 184 154 155 191 190
8 150 151 187 186 156 157 193 192
8 151 152 188 187 157 158 194 193
8 152 153 189 188 158 159 195 194
8 153 154 190 189 159 160 196 195
8 154 155 191 190 160 161 197 196
8 156 157 193 192 162 163 199 198
8 157 158 194 193 163 164 200 199
8 158 159 195 194 164 165 201 200
8 159 160 196 195 165 166 202 201
8 160 161 197 196 166 167 203 202
8 162 163 199 198 168 169 205 204
8 163 164 200 199 169 170 206 205
8 164 165 201 200 170 171 207 206
8 165 166 202 201 171 172 208 207
8 166 167 203 202 172 173 209 208
8 168 169 205 204 174 175 211 210
8 169 170 206 205 175 176 212 211
8 170 171 207 206 176 177 213 212
8 171 172 208 207 177 178 214 213
8 172 173 209 208 178 179 215 214

CELL_TYPES 125
12 12 12 12 12 12 12 12 12 12 12 12 12 12 12 12 12 12 12 12 12 12 12 12 12 12 12 12 12 12 12 12 12 12 12 12 12 12 12 12 12 12 12 12 12 12 12 12 12 12 12 12 12 12 12 12 12 12 12 12 12 12 12 12 12 12 12 12 12 12 12 12 12 12 12 12 12 12 12 12 12 12 12 12 12 12 12 12 12 12 12 12 12 12 12 12 12 12 12 12 12 12 12 12 12 12 12 12 12 12 12 12 12 12 12 12 12 12 12 12 12 12 12 12 12 



CELL_DATA 125
SCALARS MaterialID int 1
LOOKUP_TABLE default
0 0 0 0 0 0 0 0 0 0 0 0 0 0 0 0 0 0 0 0 0 0 0 0 0 0 0 0 0 0 0 0 0 0 0 0 0 0 0 0 0 0 0 0 0 0 0 0 0 0 0 0 0 0 0 0 0 0 0 0 0 0 0 0 0 0 0 0 0 0 0 0 0 0 0 0 0 0 0 0 0 0 0 0 0 0 0 0 0 0 0 0 0 0 0 0 0 0 0 0 0 0 0 0 0 0 0 0 0 0 0 0 0 0 0 0 0 0 0 0 0 0 0 0 0 



SCALARS ManifoldID int 1
LOOKUP_TABLE default
-1 -1 -1 -1 -1 -1 -1 -1 -1 -1 -1 -1 -1 -1 -1 -1 -1 -1 -1 -1 -1 -1 -1 -1 -1 -1 -1 -1 -1 -1 -1 -1 -1 -1 -1 -1 -1 -1 -1 -1 -1 -1 -1 -1 -1 -1 -1 -1 -1 -1 -1 -1 -1 -1 -1 -1 -1 -1 -1 -1 -1 -1 -1 -1 -1 -1 -1 -1 -1 -1 -1 -1 -1 -1 -1 -1 -1 -1 -1 -1 -1 -1 -1 -1 -1 -1 -1 -1 -1 -1 -1 -1 -1 -1 -1 -1 -1 -1 -1 -1 -1 -1 -1 -1 -1 -1 -1 -1 -1 -1 -1 -1 -1 -1 -1 -1 -1 -1 -1 -1 -1 -1 -1 -1 -1 


