# vtk DataFile Version 3.0
Triangulation generated with deal.II
ASCII
DATASET UNSTRUCTURED_GRID
POINTS 8 double
0 34.9272 1.04056
0 0.020919 -0.010131
0 0.020919 2.44148
0 35.1996 4.97092
10 34.9272 1.04056
10 0.020919 -0.010131
10 0.020919 2.44148
10 35.1996 4.97092

CELLS 1 9
8 0 1 5 4 3 2 6 7

CELL_TYPES 1
12 



CELL_DATA 1
SCALARS MaterialID int 1
LOOKUP_TABLE default
0 



SCALARS ManifoldID int 1
LOOKUP_TABLE default
0 


