# vtk DataFile Version 3.0
Triangulation generated with deal.II
ASCII
DATASET UNSTRUCTURED_GRID
POINTS 27 double
0 34.9272 1.04056
0 0.020919 -0.010131
0 0.020919 2.44148
0 35.1996 4.97092
10 34.9272 1.04056
10 0.020919 -0.010131
10 0.020919 2.44148
10 35.1996 4.97092
0 17.4741 0.515215
0 35.0634 3.00574
5 34.9272 1.04056
0 0.020919 1.21567
5 0.020919 -0.010131
5 0.020919 2.44148
0 17.6103 3.7062
5 35.1996 4.97092
10 17.4741 0.515215
10 35.0634 3.00574
10 0.020919 1.21567
10 17.6103 3.7062
0 31.6645 2.11071
5 35.0634 3.00574
5 0.681464 0.515214
5 0.020919 1.21567
5 30.091 3.7062
10 31.6645 2.11071
5 29.5086 2.11071

CELLS 74 342
8 0 8 22 10 9 20 26 21
8 8 1 12 22 20 11 23 26
8 10 22 16 4 21 26 25 17
8 22 12 5 16 26 23 18 25
8 9 20 26 21 3 14 24 15
8 20 11 23 26 14 2 13 24
8 21 26 25 17 15 24 19 7
8 26 23 18 25 24 13 6 19
4 0 9 20 8
4 9 3 14 20
4 8 20 11 1
4 20 14 2 11
4 0 10 21 9
4 10 4 17 21
4 9 21 15 3
4 21 17 7 15
4 0 8 22 10
4 8 1 12 22
4 10 22 16 4
4 22 12 5 16
4 1 12 23 11
4 12 5 18 23
4 11 23 13 2
4 23 18 6 13
4 3 14 24 15
4 14 2 13 24
4 15 24 19 7
4 24 13 6 19
4 4 17 25 16
4 17 7 19 25
4 16 25 18 5
4 25 19 6 18
4 26 23 18 25
4 21 26 25 17
4 20 11 23 26
4 9 20 26 21
4 26 24 13 23
4 22 26 23 12
4 21 15 24 26
4 10 21 26 22
4 26 25 19 24
4 20 26 24 14
4 22 16 25 26
4 8 22 26 20
2 9 20
2 8 20
2 20 14
2 20 11
2 10 21
2 9 21
2 21 17
2 21 15
2 8 22
2 10 22
2 22 12
2 22 16
2 12 23
2 11 23
2 23 18
2 23 13
2 14 24
2 15 24
2 24 13
2 24 19
2 17 25
2 16 25
2 25 19
2 25 18
2 26 25
2 26 23
2 21 26
2 20 26
2 26 24
2 22 26

CELL_TYPES 74
12 12 12 12 12 12 12 12 
9 9 9 9 9 9 9 9 9 9 9 9 9 9 9 9 9 9 9 9 9 9 9 9 9 9 9 9 9 9 9 9 9 9 9 9 
3 3 3 3 3 3 3 3 3 3 3 3 3 3 3 3 3 3 3 3 3 3 3 3 3 3 3 3 3 3 

CELL_DATA 74
SCALARS MaterialID int 1
LOOKUP_TABLE default
0 0 0 0 0 0 0 0 
0 0 0 0 0 0 0 0 0 0 0 0 0 0 0 0 0 0 0 0 0 0 0 0 -1 -1 -1 -1 -1 -1 -1 -1 -1 -1 -1 -1 
0 0 0 0 0 0 0 0 0 0 0 0 0 0 0 0 0 0 0 0 0 0 0 0 -1 -1 -1 -1 -1 -1 

SCALARS ManifoldID int 1
LOOKUP_TABLE default
1 1 1 1 1 1 1 1 
2 2 2 2 2 2 2 2 2 2 2 2 2 2 2 2 2 2 2 2 2 2 2 2 1 1 1 1 1 1 1 1 1 1 1 1 
2 2 2 2 2 2 2 2 2 2 2 2 2 2 2 2 2 2 2 2 2 2 2 2 1 1 1 1 1 1 
